# vtk DataFile Version 4.2
vtk output
ASCII
DATASET UNSTRUCTURED_GRID
POINTS 72 float
0 0 0 0.12 0 0 0.24 0 0 
0.36 0 0 0.48 0 0 0.6 0 0 
0 0.08 0 0.18 0.08 0 0.24 0.08 0 
0.36 0.08 0 0.48 0.08 0 0.6 0.08 0 
0 0.16 0 0.12 0.16 0 0.24 0.16 0 
0.36 0.16 0 0.48 0.16 0 0.6 0.16 0 
0 0.24 0 0.12 0.24 0 0.24 0.24 0 
0.36 0.24 0 0.48 0.24 0 0.6 0.24 0 
0 0.32 0 0.12 0.32 0 0.24 0.32 0 
0.36 0.32 0 0.48 0.32 0 0.6 0.32 0 
0 0.4 0 0.12 0.4 0 0.24 0.4 0 
0.36 0.4 0 0.48 0.4 0 0.6 0.4 0 
0 0 0.1 0.12 0 0.1 0.24 0 0.1 
0.36 0 0.1 0.48 0 0.1 0.6 0 0.1 
0 0.08 0.1 0.18 0.08 0.1 0.24 0.08 0.1 
0.36 0.08 0.1 0.48 0.08 0.1 0.6 0.08 0.1 
0 0.16 0.1 0.12 0.16 0.1 0.24 0.16 0.1 
0.36 0.16 0.1 0.48 0.16 0.1 0.6 0.16 0.1 
0 0.24 0.1 0.12 0.24 0.1 0.24 0.24 0.1 
0.36 0.24 0.1 0.48 0.24 0.1 0.6 0.24 0.1 
0 0.32 0.1 0.12 0.32 0.1 0.24 0.32 0.1 
0.36 0.32 0.1 0.48 0.32 0.1 0.6 0.32 0.1 
0 0.4 0.1 0.12 0.4 0.1 0.24 0.4 0.1 
0.36 0.4 0.1 0.48 0.4 0.1 0.6 0.4 0.1 

CELLS 24 216
8 37 43 7 1 36 42 6 0 
8 1 7 43 37 2 8 44 38 
8 2 8 44 38 3 9 45 39 
8 3 9 45 39 4 10 46 40 
8 4 10 46 40 5 11 47 41 
8 6 42 43 7 12 48 49 13 
8 7 43 44 8 13 49 50 14 
8 8 44 45 9 14 50 51 15 
8 9 45 46 10 15 51 52 16 
8 10 46 47 11 16 52 53 17 
8 12 48 49 13 18 54 55 19 
8 13 49 50 14 19 55 56 20 
8 15 51 52 16 21 57 58 22 
8 16 52 53 17 22 58 59 23 
8 18 54 55 19 24 60 61 25 
8 19 55 56 20 25 61 62 26 
8 20 26 62 56 21 27 63 57 
8 21 57 58 22 27 63 64 28 
8 22 58 59 23 28 64 65 29 
8 24 60 61 25 30 66 67 31 
8 25 61 62 26 31 67 68 32 
8 26 62 63 27 32 68 69 33 
8 27 63 64 28 33 69 70 34 
8 28 64 65 29 34 70 71 35 

CELL_TYPES 24
12
12
12
12
12
12
12
12
12
12
12
12
12
12
12
12
12
12
12
12
12
12
12
12

CELL_DATA 24
SCALARS p float
LOOKUP_TABLE default
-2.72298e-09 0.0136543 0.0261357 0.0352883 0.0407831 -0.000423914 0.0130751 0.0261875 0.0356413 
0.0412465 -0.00312638 0.0117233 0.0366465 0.0433247 -0.00733331 0.0119413 0.0259331 0.0362463 
0.0466302 -0.0124704 0.0125317 0.0258225 0.0356918 0.0518102 
VECTORS U float
0.00648533 0.00506382 0 -0.00171849 0.00436242 0 -0.00601217 0.000306306 0 
-0.00437538 -0.000754933 0 -0.00115969 -0.00100853 0 0.00602673 -7.00137e-05 0 
-0.00619079 -0.00169672 0 -0.00907915 -0.000316929 0 -0.0085192 -0.00239614 0 
-0.00412021 -0.00413924 0 0.00717753 0.00842886 0 -0.000624445 0.00203996 0 
-0.00048267 -0.00172627 0 -0.000912419 -0.00791439 0 0.0124085 0.0106519 0 
-0.00322741 0.00056609 0 -0.00210911 5.64026e-05 0 -0.00347684 -0.000382939 0 
0.00321219 -0.0103854 0 0.0359034 0.00556631 0 0.0125122 0.000136151 0 
0.015014 4.93606e-05 0 0.0124206 -8.39005e-05 0 0.0300052 -0.00558402 0 

FIELD FieldData 1
ID 1 24 int
0 1 2 3 4 5 6 7 8 
9 10 11 12 13 14 15 16 17 
18 19 20 21 22 23 
POINT_DATA 72
SCALARS p float
LOOKUP_TABLE default
-2.72298e-09 0.00682715 0.019895 0.030712 0.0380357 0.0407831 -0.000211958 0.00657637 0.0197631 
0.0308132 0.0382398 0.0410148 -0.00177515 0.00531203 0.0189554 0.031417 0.0392148 0.0422856 
-0.00522984 0.00330123 0.0188282 0.0312898 0.0407119 0.0449774 -0.00990186 0.00116732 0.0190571 
0.0309234 0.0425946 0.0492202 -0.0124704 3.06498e-05 0.0191771 0.0307572 0.043751 0.0518102 
-2.72298e-09 0.00682715 0.019895 0.030712 0.0380357 0.0407831 -0.000211958 0.00657637 0.0197631 
0.0308132 0.0382398 0.0410148 -0.00177515 0.00531203 0.0189554 0.031417 0.0392148 0.0422856 
-0.00522984 0.00330123 0.0188282 0.0312898 0.0407119 0.0449774 -0.00990186 0.00116732 0.0190571 
0.0309234 0.0425946 0.0492202 -0.0124704 3.06498e-05 0.0191771 0.0307572 0.043751 0.0518102 

VECTORS U float
0 0 0 0 0 0 0 0 0 
0 0 0 0 0 0 0 0 0 
0 0 0 0.0011507 0.00191488 0 -0.00575015 0.000663769 0 
-0.00699648 -0.000790424 0 -0.00454362 -0.00207471 0 0 0 0 
0 0 0 0.00159726 0.00217552 0 0 0 0 
0 0 0 -0.00350862 -0.00404401 0 0 0 0 
0 0 0 0.00393354 0.0054217 0 0 0 0 
0 0 0 -0.000414935 -0.00510225 0 0 0 0 
0 0 0 0.0143992 0.00423011 0 0.00554742 0.000202001 0 
0.00546216 -9.02691e-05 0 0.0105403 -0.00410907 0 0 0 0 
0.05 0 0 0.075 0 0 0.05 0 0 
0.05 0 0 0.075 0 0 0.05 0 0 
0 0 0 0 0 0 0 0 0 
0 0 0 0 0 0 0 0 0 
0 0 0 0.0011507 0.00191488 0 -0.00575015 0.000663769 0 
-0.00699648 -0.000790424 0 -0.00454362 -0.00207471 0 0 0 0 
0 0 0 0.00159726 0.00217552 0 0 0 0 
0 0 0 -0.00350862 -0.00404401 0 0 0 0 
0 0 0 0.00393354 0.0054217 0 0 0 0 
0 0 0 -0.000414935 -0.00510225 0 0 0 0 
0 0 0 0.0143992 0.00423011 0 0.00554742 0.000202001 0 
0.00546216 -9.02691e-05 0 0.0105403 -0.00410907 0 0 0 0 
0.05 0 0 0.075 0 0 0.05 0 0 
0.05 0 0 0.075 0 0 0.05 0 0 

